<VTKFile type="PolyData" version="1.0" byte_order="LittleEndian" header_type="UInt64">
  <PolyData>
    <Piece NumberOfPoints="2601" NumberOfVerts="0" NumberOfLines="0" NumberOfStrips="0" NumberOfPolys="2500">
      <PointData>
        <DataArray type="Float32" Name="zvalue" NumberOfComponents="1" format="ascii" RangeMin="4.280150323579321" RangeMax="4.751944072506389">
          4.5965016504310485 4.5893566713589875 4.602344458508184 4.622222015366618 4.669620667496034 4.693309819828772
          4.730172022949381 4.727715450260422 4.748670572885969 4.749318609073201 4.726532309485673 4.751944072506389
          4.741288868144783 4.725322554559882 4.708579571820526 4.706025540915933 4.7019280923269795 4.725972204636597
          4.695419381917224 4.694897175864268 4.687374515692366 4.678591371275339 4.671531426041376 4.674623520340994
          4.680210524424436 4.674830522262784 4.659582680347275 4.646636841986391 4.676045972595095 4.674893496869037
          4.666481947699524 4.652895494960745 4.67676312672184 4.663604302120237 4.674570466916558 4.657392201405627
          4.6589553148635465 4.658973375225545 4.640450566030487 4.646027808972554 4.651583279193097 4.667817118117617
          4.640484983395598 4.657822476914348 4.667042692306271 4.675608385581225 4.687506832025411 4.69998431043794
          4.697970751142057 4.6911029849889205 4.7081008706802345 4.551649570817614 4.558144879226328 4.563968963205809
          4.589092469639025 4.595260042654537 4.643922714888321 4.705702610483122 4.712646632526933 4.713913024030273
          4.733420424858662 4.731733474187675 4.720210544440788 4.716251734760276 4.704103721816315 4.7165170410063455
          4.7167220292921535 4.7114893524662556 4.7084143328914285 4.716060027224544 4.702625495742421 4.683597503436475
          4.692024482596844 4.664845624484848 4.674003075486712 4.652199491265101 4.6673958213363145 4.623570799742625
          4.633907013257239 4.631453931421762 4.6142868433338835 4.636390409177986 4.6015662356978515 4.629481257122194
          4.642726410635872 4.646328913236023 4.625993606688294 4.633153750713087 4.605559008733632 4.622315556181326
          4.628267896980763 4.626507443265263 4.6521104774876845 4.638286055606684 4.630727750889986 4.654401294923727
          4.656808477617022 4.664418287353916 4.686634647182615 4.693324019168043 4.710272071563519 4.697801148832607
          4.528007531108766 4.55095976218888 4.543284110858052 4.5369562250163495 4.553137366043279 4.595468428918084
          4.634930934234537 4.684837483738337 4.7086113591418925 4.720388432464716 4.720554867808146 4.68713416520902
          4.6848982057378485 4.686188608799911 4.701248066745371 4.679721517354586 4.690782374711446 4.694023014758002
          4.685700964117111 4.676033703257297 4.684964796381131 4.668549783394805 4.685468398818637 4.6802875953242316
          4.655412449624873 4.643249041445839 4.632807442777718 4.602172680764033 4.613003163256073 4.588441516347616
          4.6140506270498145 4.589060312648382 4.600050803260366 4.5870508716253084 4.586971572044578 4.596087974289751
          4.60137123510874 4.5912831011530235 4.594965709711449 4.604248087460127 4.609365229636614 4.609203501755034
          4.615905482877497 4.61595870853557 4.6255538446400575 4.624778695183862 4.645779009560056 4.652244717598933
          4.654410725399022 4.6671561606579495 4.684507329022879 4.533919788049299 4.508801291824503 4.537483114067771
          4.566103814572142 4.543308496095973 4.54266143119022 4.582285526569051 4.6365446223564675 4.662096816326814
          4.687360450417703 4.69826392017432 4.661583687716304 4.680277086288804 4.662180063343989 4.663916303778373
          4.650246394662035 4.675328842378426 4.695457448768462 4.693278467935768 4.671551451338248 4.677133545102469
          4.668887050808188 4.661807312820848 4.653737904657681 4.624612889892064 4.6087254433371365 4.615688075827257
          4.580559052070131 4.593291779525813 4.575465077210954 4.601661015983319 4.569022017951219 4.5634688745751095
          4.585793275805189 4.560622319994156 4.568056785990252 4.56890091491102 4.561853782371993 4.570078150734259
          4.567587595576853 4.5922598223889635 4.5833607517880175 4.587450502233415 4.58772453038787 4.573684095029984
          4.603645126075901 4.5966240003472425 4.608428098770687 4.63546208633159 4.63936757915647 4.650194222680975
          4.510578044213817 4.493001087609578 4.508468404330253 4.5096444918647025 4.513536939097555 4.5172120260822695
          4.536261775894339 4.582074580749315 4.623347238938325 4.648484605218418 4.634055318886771 4.645473523110723
          4.647552527911109 4.6403437764291695 4.649010925712497 4.669962752233125 4.669585961973908 4.668566949334231
          4.681401244129981 4.66898734609139 4.664281531922897 4.654725694278084 4.641527997846492 4.6178665703630335
          4.616494159906905 4.61582272290964 4.589579879132071 4.583625066228846 4.582290358303563 4.586067036969278
          4.573693609556514 4.560683874040225 4.553506956250514 4.551896362831129 4.538120577559717 4.541845552908706
          4.551854911988079 4.549169031243446 4.548619583767344 4.548265997303142 4.559160434355443 4.570636717717528
          4.581365505034914 4.568221591996805 4.583494743130964 4.579518583258861 4.600833404300182 4.599689219448421
          4.6155078959553 4.611811197004138 4.624286658321405 4.5176855692797995 4.5028325258721935 4.532097721410189
          4.498094266612354 4.498139410838862 4.507907559045536 4.530143141004177 4.5497475710732544 4.574270464000584
          4.5970988026116 4.602836725758252 4.608056307079731 4.613521675159125 4.615311605948227 4.631166884197259
          4.66354980250752 4.666646573985039 4.666301382467008 4.667843808644279 4.657242790463626 4.651686803529557
          4.635175906404554 4.6310436756817595 4.612044563060144 4.5999825293716885 4.593097726356824 4.59171544916358
          4.593665615414771 4.563035876818313 4.563177024152979 4.561497668387622 4.558432167062295 4.549140118772803
          4.534064846041829 4.52928756656234 4.511896854007126 4.5110905789397195 4.5184292063769265 4.517125051726935
          4.530496287182972 4.536750295732151 4.540389112965254 4.553427072692478 4.550694156211922 4.559482922977123
          4.582812272929666 4.594081742938715 4.595945609605232 4.603268567871283 4.628489254326975 4.6416536561605675
          4.493049938602029 4.478781052554382 4.4587666548646965 4.4780978707378 4.496639809047889 4.496147210596479
          4.522969060314323 4.528454927133578 4.559781520568735 4.588991550557754 4.593893178378446 4.594527347774558
          4.594044874096925 4.603291190681961 4.606391092952225 4.6325164982487985 4.649955216825887 4.654261809241931
          4.639467110662614 4.6575572610402745 4.629804556524789 4.622800799685797 4.619713160268916 4.610826296699027
          4.599386319058767 4.573094540094737 4.574928783517152 4.574694819388867 4.561088486213612 4.558412899293205
          4.545141301066227 4.521913075367852 4.542085379987238 4.507781596058073 4.517204067032332 4.501964102382702
          4.512668144724909 4.473482097239138 4.5117981709045365 4.523036790025465 4.505976962351172 4.524128766442415
          4.537040612651151 4.5276723078774115 4.563903220054329 4.56563897695778 4.5819794001523 4.589427511102777
          4.597020598748394 4.579985633698732 4.597519449389864 4.459384003039455 4.512257124520079 4.499565086148282
          4.478385195259327 4.519160033551305 4.4980090686434115 4.514361880824851 4.533459882536684 4.533315775197802
          4.561268923015599 4.5686115933039035 4.574298316402544 4.57049724235531 4.593724317420517 4.613648649002605
          4.642967138613672 4.644662901220451 4.623843838750898 4.640817627479893 4.62270192100407 4.614682521582805
          4.596336868711985 4.607287156880705 4.597756081302215 4.580442387417963 4.559783640190519 4.5560144047664926
          4.552922824895962 4.552013704878177 4.5461497602143615 4.522571617887841 4.5322843957348855 4.521474315937977
          4.514281745237703 4.505671719705116 4.506546805630589 4.49024147157699 4.478913703402624 4.487120935463026
          4.498508838003234 4.499151102377271 4.519538665129283 4.532390245913542 4.527128108744081 4.548121681140301
          4.545996577293105 4.601901861369121 4.570976839784096 4.590530736284181 4.601937511066828 4.594740873742641
          4.462927539926522 4.457837536999779 4.472427905961903 4.514637192576167 4.515243610670737 4.473786214415221
          4.536214555911714 4.50487032619998 4.509745100382239 4.54112431740006 4.571414068734673 4.558114417223852
          4.554229304095525 4.586348431247576 4.591949455124139 4.596933668165541 4.609689215628253 4.625914271839408
          4.617078845509024 4.605458662449043 4.585546907946464 4.590160336849492 4.571775272424914 4.567794295935095
          4.569766048602257 4.549390203100676 4.560977688542871 4.542758973192793 4.541390854870438 4.530065003283385
          4.517336497462414 4.52821301847836 4.494918553578967 4.506946987779304 4.515396783646009 4.480694268861299
          4.481114543284513 4.476171240690451 4.4756609854018485 4.467708545855674 4.479319027579943 4.495937694637575
          4.496725197513721 4.512997101652742 4.494505918668115 4.544115417408049 4.547548727893789 4.572777921624872
          4.585866306171601 4.602410309855325 4.615510555571451 4.477451280349829 4.467566990670509 4.496326573994663
          4.459278026915722 4.5520320662881995 4.507339702479049 4.542746275130158 4.492982030079575 4.52637490053735
          4.521867026476422 4.530090852331354 4.534765227433644 4.536264379193336 4.545238467156051 4.59004455652298
          4.593144831061502 4.605609571975084 4.60056323391336 4.607111334245432 4.581750749345437 4.573806808635013
          4.5518895995768585 4.569820144828271 4.5636837694927745 4.558500586525034 4.54445527735223 4.534767242104948
          4.510490929985095 4.512970379918039 4.516174312494981 4.521227153541415 4.525440521767969 4.516865231024833
          4.493086189910789 4.487619881288615 4.47965918142512 4.481916683886942 4.466225734725531 4.4593170364106935
          4.47511021762509 4.45919359990932 4.471729237751694 4.488731127569351 4.4822270917046385 4.525799481406902
          4.525630194577334 4.528031156313568 4.538363253163001 4.590779350082934 4.564720120626909 4.595650486220121
          4.519150306835484 4.509663183296187 4.510576685254326 4.457380692262528 4.502793240535081 4.5037266259006286
          4.5122344984121066 4.491979692897294 4.510189297702927 4.515157434589552 4.537463670692528 4.540899337948957
          4.534028263967752 4.560096259729044 4.564184971198395 4.595047886230281 4.583985610729214 4.586136132940466
          4.572622365973034 4.5648531468905045 4.554179758908418 4.556854962704801 4.54457755258813 4.54788119053567
          4.540578170751605 4.536125654775241 4.513953155677217 4.518593382818784 4.507052989714461 4.526891558939944
          4.504239261774281 4.501345049386552 4.50013857902207 4.487747882603114 4.484451999712249 4.484636789123131
          4.470682364399541 4.440182399063635 4.465212241704361 4.453826798785177 4.455403238609258 4.475247000190487
          4.460364445437712 4.491753492983262 4.488140025151745 4.4903702867665025 4.497267147346074 4.5535011596544095
          4.519735523422959 4.560619245376042 4.553719643162291 4.491842020630578 4.4433416032451065 4.494216516997826
          4.470704175222553 4.459334828824962 4.492930594127645 4.483499447005838 4.51062545529708 4.535372956148013
          4.527617141451432 4.527953272347353 4.528379006202154 4.535146837707587 4.550835671860276 4.559862531381385
          4.573059191976916 4.580618244127084 4.5676208768604045 4.555539828619175 4.5458409601491025 4.531476576097868
          4.5278288999633 4.529632355244808 4.520121627750252 4.521936303254905 4.521504504667066 4.5148343802244115
          4.5029946871286715 4.496807643826384 4.502755243004563 4.490803809333448 4.493257425300738 4.47270120944554
          4.49085835507955 4.48027886122174 4.479177143914847 4.4737166551533125 4.478948875738928 4.446699390800596
          4.457132108595234 4.451842739591434 4.466661895203033 4.473767387051252 4.462978109280462 4.458914323838219
          4.473038061942819 4.47334591636895 4.535973580094747 4.518406883583644 4.512494990072198 4.545221690912659
          4.425757011885567 4.461773248500716 4.457662731092611 4.445578294874521 4.4523055578933945 4.533811928385977
          4.459291754288844 4.473896909542781 4.48851552950506 4.5090370378449585 4.5303579826983915 4.518175890433886
          4.529623825067577 4.530007031064833 4.54121076908953 4.526257785613272 4.543826768537975 4.533140285640185
          4.524867632905393 4.528165799939489 4.5217896834070865 4.5204268712911935 4.520951553835113 4.516019729803897
          4.497640924016979 4.518410200165257 4.502215935045208 4.495668713051337 4.479317578737735 4.478448430707607
          4.487512399075482 4.46862513512452 4.473787464220772 4.46535499011585 4.490401028063265 4.4688960772517845
          4.480595808575383 4.460834489472418 4.455749901651957 4.456083764570842 4.440368882623357 4.454685840719705
          4.4590046193643795 4.44411232868385 4.4673347426210945 4.441184132767602 4.460315955032484 4.480218023986087
          4.480222263933356 4.514632853124026 4.504387012200673 4.455515587330825 4.482688455111311 4.458384960313243
          4.493896075883702 4.486217880321116 4.478913984146036 4.458885539334902 4.478646883882767 4.482037761799818
          4.507433982670159 4.5387101964069725 4.499421126261886 4.511264038944769 4.542035659780102 4.522156532425483
          4.53474475587147 4.526051955922134 4.52593177221046 4.532595428664638 4.515235387464522 4.51170782450814
          4.507561802719163 4.505960741958504 4.49396572069103 4.487643212464478 4.502568416453793 4.482417410149072
          4.485541741218433 4.468612973025989 4.48025866432966 4.463952671380924 4.456536135151307 4.465515512374991
          4.4797946611509785 4.47198982871271 4.469983278090863 4.455362229357812 4.4645952613428275 4.46181797612209
          4.449816927022234 4.448886443184858 4.456923656977668 4.446065891930984 4.427356283852628 4.450977992796869
          4.441977980218389 4.426551234165223 4.454910245564546 4.46052816318868 4.485430843527274 4.509925078208155
          4.490975067313596 4.480151374236591 4.50520514363376 4.483123245811727 4.459325613702128 4.449493897915858
          4.463701517516985 4.471644068887495 4.4925170001090065 4.506106108231695 4.521731501714487 4.492130695100561
          4.5012347279098845 4.503749454389248 4.518353688646086 4.5140072334700285 4.5185287936980085 4.497713089945966
          4.490998401075098 4.4928010049524945 4.4959758006074155 4.489379956163577 4.479894899564117 4.476886573982509
          4.478358607574272 4.484368237072042 4.482988246847961 4.463995073341268 4.468053441055879 4.453059357708976
          4.452893558340001 4.464101443756649 4.439717115845239 4.4729632530884915 4.464560735187712 4.446251625867694
          4.466229792843543 4.4488480253491085 4.450435908842686 4.427741992519868 4.43412853136071 4.445185157996637
          4.426597647132866 4.44040517240945 4.450290697866566 4.434232213534053 4.437579635839419 4.4297325404934655
          4.442519949183922 4.46064170741344 4.475752395219534 4.470711131819694 4.491105972327739 4.461547355327519
          4.466594006724125 4.453408857931168 4.434234400154281 4.484915184896503 4.4598461656535635 4.469199629498046
          4.471415357496226 4.489678270500742 4.514359107237217 4.507421092539526 4.493361574952984 4.49263243671562
          4.484746436410679 4.486434156606501 4.48660332167112 4.498736140075931 4.47797550387087 4.487821749601313
          4.478678440573284 4.459174307884787 4.455783653946394 4.485450056773047 4.452572612115713 4.449029037846898
          4.4452037041350145 4.447969082020142 4.462146462937933 4.432960009434743 4.443245663143001 4.455683212186831
          4.450620989263862 4.440098825442881 4.451338897842538 4.456631337798653 4.415049000438969 4.456783850300369
          4.436920432306957 4.442070860192997 4.44233124361697 4.4344113907687115 4.430635558254089 4.413489412153017
          4.431540635742295 4.425802532066649 4.403750115677397 4.450898265442342 4.475648684620982 4.468599573145254
          4.478179262254613 4.448025213310277 4.432594691572875 4.4653281055055345 4.43905747117625 4.496405454236147
          4.468489878824097 4.4717342557600634 4.48864613135593 4.472825299468793 4.486775177417777 4.494180351648223
          4.485962554990393 4.497290744815894 4.476785450222001 4.475771735380698 4.4717423849129565 4.462663609339987
          4.478709410164482 4.471303623211719 4.473833114465848 4.458976437758987 4.457782985278383 4.451020037702888
          4.454940996356237 4.440937719380474 4.454225415254386 4.440753008890467 4.418694842832631 4.428492895864021
          4.438314696598742 4.445173369574264 4.424062456906296 4.422345999685983 4.430321913887368 4.437526908607616
          4.4066646649057235 4.406931156599298 4.411869310059225 4.42873035406609 4.429818318438271 4.4127159867028585
          4.415251496465022 4.3985782196473275 4.395752421095875 4.4071016388028905 4.43008137686341 4.413462000263567
          4.429532944627013 4.40932363972078 4.410156819478609 4.45500826266142 4.491269842610849 4.447168216722702
          4.466586747001694 4.4185095171296425 4.449925052779034 4.448339935823928 4.460630916878848 4.4652211434575895
          4.4887817188415 4.48203267046951 4.455434734558512 4.505445351675613 4.467847639020269 4.4805661443582805
          4.483060680542971 4.450458282438142 4.470213133301742 4.455621440821452 4.423395824144361 4.459834794474246
          4.440316275749342 4.435798773573659 4.442797311964532 4.432408786954019 4.445878890835143 4.4330598700064785
          4.427734833808002 4.427941230903757 4.421935647614699 4.403973395812614 4.415695058690693 4.404038921627292
          4.4054997526052935 4.410146021842557 4.428430610777074 4.382372260130353 4.4221319093116955 4.406672664169876
          4.418518706917727 4.414761384759498 4.403046891249043 4.391104382705735 4.382777688992547 4.429071761016827
          4.39111283134899 4.388566223339451 4.407518653703803 4.415655637090864 4.405986156334452 4.405850000760991
          4.468002318158764 4.475334295456083 4.440162995443655 4.447022468217498 4.46678560159304 4.459368488781525
          4.443229834659023 4.467920109434483 4.433294795404337 4.4698285691532496 4.441088249698713 4.4501105180101215
          4.494114913312047 4.435565491534386 4.455227074749603 4.454487948279529 4.447354185616797 4.466101692832039
          4.441682385347889 4.452560195514272 4.439701503510799 4.425972158467069 4.425800173797494 4.403928804608151
          4.406688545285019 4.442038918659179 4.399505560046936 4.429191704679316 4.4005622953567265 4.402197203417314
          4.367764460371925 4.43670139652397 4.4083009704330385 4.386885038456509 4.407805497459146 4.4084032851128425
          4.4139306828702445 4.411320471435212 4.39277731674185 4.3933282542761845 4.40064169405292 4.402393256129233
          4.402573439030291 4.401263975440181 4.398679385357566 4.418189832089482 4.407590916983146 4.397414822331762
          4.407545036195412 4.435316975386137 4.39866974574465 4.442746174716573 4.47211760003133 4.4332738781529875
          4.4241827542939465 4.46651335895099 4.458635950126772 4.450091248226968 4.459882646684187 4.477598716000183
          4.446541655192702 4.449496602775877 4.450653234621098 4.433762900748691 4.414713874138957 4.418628922398143
          4.451733505777096 4.443387369298841 4.429288993179412 4.403647496544411 4.435060513442251 4.407132808495997
          4.426630195923429 4.407288575994902 4.428724554315497 4.359797345967234 4.427078879728721 4.410130354914112
          4.394863263920105 4.392762155909905 4.371034499372852 4.3814086391339915 4.370399680900444 4.3924056013328086
          4.389806133101549 4.405456896616983 4.399738024654955 4.385041868145656 4.376298819599174 4.381563401514264
          4.376098500973763 4.379959978234117 4.378427273081901 4.3782414372655785 4.393490981587969 4.408822975241168
          4.3785209901723885 4.404085413624227 4.413136750605615 4.383659037283329 4.424990334491493 4.401873691303012
          4.444267157590058 4.462467844003168 4.425949237795013 4.456641535400823 4.420457018778789 4.416527002717228
          4.405301348883766 4.410304050907494 4.422500747980815 4.434703727903876 4.440980877601967 4.457020259949223
          4.4728728159514946 4.407736261442427 4.431630305416549 4.435509304629316 4.413118057725355 4.4285482666926095
          4.462794509624972 4.4095840845943055 4.4223135498904655 4.408987086001732 4.3912408328585 4.394036865263858
          4.411456919477652 4.379815486468348 4.373903692138277 4.347397320224389 4.388159942846319 4.380305230169432
          4.386164955684407 4.356522427365426 4.37045226630879 4.403145454191437 4.356162021962921 4.406428976284506
          4.385798930060033 4.362524203514983 4.37152824568418 4.397249882392229 4.4156618458377315 4.357309058445517
          4.38083045892693 4.378383468997533 4.388717069499492 4.394475476836912 4.411078497614397 4.388670291835483
          4.411689471668594 4.398205514034346 4.391482697402927 4.47183268760677 4.4227110323804775 4.42377324350714
          4.481901669229711 4.433614438199821 4.417384642259766 4.391438822252955 4.431924606975525 4.42663753470519
          4.422245102915707 4.4318765139540925 4.411993371756443 4.4249161705497455 4.413323741112415 4.421003725340072
          4.403761512176114 4.4191453131097544 4.398461556276577 4.4156935887434425 4.407036271331932 4.354717157199028
          4.410926586433917 4.382613046133255 4.37340612845378 4.402823070723781 4.385038665794005 4.37936621263213
          4.382735299574126 4.371981322398995 4.345286991527822 4.3718137121478 4.392525232943002 4.392809908746594
          4.35465536135793 4.374190665731896 4.409205673457839 4.4043767845536035 4.371573932530641 4.39164824060808
          4.395495949271073 4.396902327913637 4.381960788784379 4.373928804483551 4.395762206828842 4.390984459625012
          4.372287337721346 4.40191270755256 4.407641859659751 4.393700294384127 4.402015379192697 4.420742585682851
          4.423634855226355 4.426998427451223 4.419388883805825 4.416368308524124 4.383627392158558 4.375300578010866
          4.427452559205027 4.418543719775427 4.374769618875864 4.444003546239551 4.385870807263083 4.412005256811123
          4.379135088924941 4.407279198997531 4.397878415895254 4.437856876488501 4.374008009936958 4.409278005984745
          4.401566657301668 4.39649315411744 4.423855512649169 4.3958004257386785 4.384443326464386 4.377784165330587
          4.352972413717232 4.356111268761056 4.377455047569409 4.354277063796046 4.351841825950873 4.379948405002576
          4.35393258584604 4.372662929245065 4.346057049080942 4.369205857351073 4.349759334658097 4.384352693722251
          4.364257735076801 4.341946532210697 4.401251162049981 4.35804516854606 4.400357987138823 4.375156985284502
          4.384674972659099 4.376031153630313 4.370990916980433 4.361277021048081 4.382767401341825 4.3924003084128564
          4.406785563425529 4.3968288136257945 4.411022515172536 4.423968908650382 4.4028680202584916 4.371342756710927
          4.468557714871755 4.405529697480857 4.374533996197915 4.368613464378702 4.3918569858713745 4.398800314201754
          4.421870931113482 4.410075133221398 4.39939723190659 4.373362013008802 4.404692952776866 4.3733610510248715
          4.387460284150754 4.4346668780452125 4.381383206859087 4.362051473882568 4.362461112962208 4.382521757006402
          4.36217163044291 4.354056270842446 4.353586811624307 4.340773264073081 4.368958750924786 4.359701666716137
          4.322772840965257 4.339208111807014 4.351341466969817 4.369433216083036 4.369242538344294 4.36632457923178
          4.335732062540382 4.373389897597827 4.3666490860502245 4.3499756777896055 4.368105876975452 4.361500234819333
          4.361915339427098 4.36557096714179 4.384235921054996 4.3624274352163335 4.385045712361577 4.3826954759911185
          4.361037763917327 4.40074349321013 4.412968125742309 4.402813714426516 4.38864928583946 4.38367485268871
          4.400311794633516 4.434974889916497 4.394447539696282 4.3947735115069175 4.402995929965747 4.36569760222779
          4.386538380142158 4.396958266486891 4.437821713965839 4.414483364893567 4.384680320866975 4.356794081656708
          4.358293931752917 4.36352249327098 4.382759844199841 4.3739776058677915 4.382493927392786 4.372579922471759
          4.3403076424364695 4.3808668377784485 4.379884559164198 4.346257520095969 4.358341561839563 4.381179744803774
          4.360429757658876 4.360254319751479 4.386814538379227 4.339039559419677 4.3518561332736745 4.340769017809726
          4.3429697674719625 4.367317252456145 4.353590798798129 4.365042549963195 4.336221954884327 4.389712736396381
          4.36206136540515 4.392396316414403 4.397953059963962 4.354411653584612 4.38955516000982 4.367378260968969
          4.374469969710455 4.402187393169875 4.380246655537812 4.360406348869499 4.406799563776667 4.408028108583419
          4.368727689846158 4.397470360253546 4.405404274152756 4.383262276189017 4.398174204026892 4.3951360560057795
          4.390634598995575 4.389003620093681 4.358947311701133 4.390814773865509 4.359379683541836 4.335068024787971
          4.387209163122476 4.335463790335605 4.344381285357326 4.327910700859279 4.382957605166747 4.364020226559155
          4.353668868900569 4.379152288928747 4.350988951415965 4.356120598045326 4.360891250368043 4.407990575630442
          4.354520302437336 4.364371415936901 4.336287521337608 4.341113468426532 4.370202810613616 4.347145326753068
          4.303832659185787 4.406975799991615 4.332049472611503 4.392402840800835 4.401853221903142 4.359239151206739
          4.403015875473089 4.328623904691086 4.373839101550655 4.374403233491935 4.389043032171379 4.409808320163525
          4.394759074502459 4.36754975859519 4.384864742436669 4.35874286469001 4.377858624705593 4.374790833856996
          4.373390693679024 4.404546388128206 4.379575554209735 4.3785597522254935 4.394975145408372 4.369792817109829
          4.424640066172552 4.384277650401496 4.421519324009561 4.364877888341148 4.35443892743713 4.3755974071314165
          4.3685822310241 4.366251561418377 4.369982150695872 4.340021928250702 4.35737842847148 4.332668956126106
          4.341605970719103 4.327882336014598 4.311398224061473 4.323160092201515 4.3231339672912625 4.333558437632224
          4.316086299398958 4.35456239992705 4.319698913287294 4.350703626641478 4.337834076017412 4.337156495785159
          4.348126216254467 4.379434301272063 4.365027050701588 4.339161762839946 4.341119986692889 4.35867567162512
          4.374355576137505 4.355333167289323 4.397702365748686 4.392626820407588 4.362525716083358 4.4100473478663424
          4.417342300775821 4.404252182582208 4.3841480845138525 4.382963225232822 4.364864555485539 4.357291644451873
          4.396305834697414 4.406101102925621 4.366532519160081 4.371351451039603 4.377364994966539 4.367277061506214
          4.3829982878060045 4.377696383448447 4.429925497962845 4.4368878641822995 4.419009975478124 4.384882487924171
          4.35082272029214 4.334533843771705 4.378887355975621 4.374912677565469 4.346809467588706 4.3539298715795285
          4.33254251668637 4.373668786566288 4.348228015742479 4.381778651844775 4.338173905294459 4.336865255530959
          4.34817943304821 4.337713008801091 4.349900149545318 4.354517475090102 4.349413020203716 4.299989392472774
          4.321182665053236 4.313226859377402 4.406963705672076 4.351300343022114 4.3567573191806 4.376631389097085
          4.37502489310707 4.359040235420319 4.372833577236873 4.355378448187969 4.398177997935617 4.336271435717321
          4.364693002807477 4.348805452766336 4.372352016575909 4.376302190580613 4.4055030908434665 4.386294415615456
          4.379341188363342 4.34804653093597 4.3741700905063325 4.358275028176055 4.405713245893725 4.402802910148957
          4.417249847210658 4.3347667496254845 4.372567782794136 4.351104918221164 4.419733906312265 4.356193518271184
          4.436085156920993 4.395164032776594 4.382887220693215 4.361160169672011 4.363059169716056 4.389228193510021
          4.363025500942379 4.386055946378839 4.31867232807547 4.304521393085995 4.3595242194762776 4.320051127405982
          4.28873044399544 4.343198609829715 4.309092182473346 4.311543679095522 4.2926923001612955 4.3203882351996
          4.3511471801026005 4.33531196943403 4.341057520621379 4.382162459188211 4.30486382525291 4.395257142297907
          4.362289646416231 4.384161375056412 4.375672768033584 4.374486534449114 4.37619593442469 4.38179292545699
          4.351969192583777 4.41200263612926 4.378482690229351 4.39307632494397 4.373266212514785 4.398714457044556
          4.378812963642912 4.384673413235834 4.379143397518166 4.4141267525646315 4.445679683579183 4.373496796927252
          4.382210258850787 4.3722432235910755 4.353898478664777 4.401176978650403 4.351129550259137 4.387172193155374
          4.386779963466266 4.380512866340664 4.385228704892412 4.405271910951407 4.384258078755095 4.374705143127086
          4.362926167004635 4.381716525811854 4.37213732227663 4.314760256739194 4.331194740221767 4.349994288804734
          4.329008002767872 4.292350414021506 4.293492501453982 4.3176621222056095 4.284650944468617 4.337236012763603
          4.288989475874248 4.328277563323895 4.318022809921989 4.289383079580313 4.291041048044549 4.306719450103774